LAMMPS data file. CGCMM style. atom_style full generated by VMD/TopoTools v1.8 on Thu Apr 24 16:32:07 EDT 2025
 5952 atoms
 5888 bonds
 0 angles
 0 dihedrals
 0 impropers
 3 atom types
 1 bond types
 0 angle types
 0 dihedral types
 0 improper types
 3.420418 646.295235  xlo xhi
 -11.860329 631.014488  ylo yhi
 -2.319763 640.555054  zlo zhi

# Pair Coeffs
#
# 1  A
# 2  C
# 3  G

# Bond Coeffs
#
# 1  

 Masses

 1 39.948002 # A
 2 12.010700 # C
 3 69.723000 # G

 Atoms # full

1 1 2 0.000000 437.444214 421.600037 314.625763 # C CYT
2 2 1 0.000000 432.065643 421.063660 316.997253 # A ADE
3 3 3 0.000000 429.879211 416.333679 320.078735 # G GUA
4 4 2 0.000000 426.581268 411.145264 319.934296 # C CYT
5 5 1 0.000000 423.913330 405.702332 319.984589 # A ADE
6 6 3 0.000000 422.461639 400.423096 317.027130 # G GUA
7 7 2 0.000000 420.772369 394.740417 316.414215 # C CYT
8 8 1 0.000000 420.936096 389.357300 313.988251 # A ADE
9 9 3 0.000000 422.982544 383.901428 314.713593 # G GUA
10 10 2 0.000000 423.440308 377.812378 314.312469 # C CYT
11 11 1 0.000000 423.296722 373.165039 310.497101 # A ADE
12 12 3 0.000000 422.863892 367.495117 309.333923 # G GUA
13 13 2 0.000000 419.323883 363.239746 307.645386 # C CYT
14 14 1 0.000000 414.855804 359.640625 308.527557 # A ADE
15 15 3 0.000000 409.193634 358.839355 307.465942 # G GUA
16 16 2 0.000000 403.834351 356.496826 305.381165 # C CYT
17 17 1 0.000000 399.709167 352.376404 305.250183 # A ADE
18 18 3 0.000000 398.516968 347.121521 302.496490 # G GUA
19 19 2 0.000000 395.359772 342.733215 299.697815 # C CYT
20 20 1 0.000000 394.492065 339.340881 294.468964 # A ADE
21 21 3 0.000000 392.480652 337.466309 289.274872 # G GUA
22 22 2 0.000000 393.898743 336.846619 283.833923 # C CYT
23 23 1 0.000000 398.025452 336.797241 279.580200 # A ADE
24 24 3 0.000000 400.659119 335.146851 274.477814 # G GUA
25 25 2 0.000000 402.606812 338.101196 269.687012 # C CYT
26 26 1 0.000000 407.129669 341.797791 267.688599 # A ADE
27 27 3 0.000000 412.832306 343.967773 266.682770 # G GUA
28 28 2 0.000000 417.762665 346.061157 269.356750 # C CYT
29 29 1 0.000000 422.726196 343.172913 268.931305 # A ADE
30 30 3 0.000000 426.950745 341.028870 265.095795 # G GUA
31 31 2 0.000000 432.413452 338.747803 264.866302 # C CYT
32 32 1 0.000000 435.057037 333.637085 266.325439 # A ADE
33 33 3 0.000000 434.054077 327.979126 267.862396 # G GUA
34 34 2 0.000000 429.419952 324.239075 268.438354 # C CYT
35 35 1 0.000000 425.829865 320.061890 266.586578 # A ADE
36 36 3 0.000000 425.420319 316.244202 261.959808 # G GUA
37 37 2 0.000000 422.993164 315.696045 256.634827 # C CYT
38 38 1 0.000000 420.551819 313.745178 251.638367 # A ADE
39 39 3 0.000000 420.009308 310.073181 246.986969 # G GUA
40 40 2 0.000000 416.538940 309.585144 242.011627 # C CYT
41 41 1 0.000000 413.148529 307.274841 237.252747 # A ADE
42 42 3 0.000000 411.799011 304.412964 232.328735 # G GUA
43 43 2 0.000000 409.719513 300.880676 228.490234 # C CYT
44 44 1 0.000000 407.157013 295.756531 226.920197 # A ADE
45 45 3 0.000000 403.340912 291.520264 227.231598 # G GUA
46 46 2 0.000000 398.567474 289.610229 229.635376 # C CYT
47 47 1 0.000000 393.781494 289.515686 233.068268 # A ADE
48 48 3 0.000000 389.625214 293.077148 234.921814 # G GUA
49 49 2 0.000000 386.761719 297.852783 234.045380 # C CYT
50 50 1 0.000000 387.122162 303.988098 235.427277 # A ADE
51 51 3 0.000000 386.692871 309.264404 238.003235 # G GUA
52 52 2 0.000000 388.814270 314.276611 240.310394 # C CYT
53 53 1 0.000000 392.422852 319.001343 241.152649 # A ADE
54 54 3 0.000000 396.162689 321.275146 245.680725 # G GUA
55 55 2 0.000000 399.537079 325.758789 246.486755 # C CYT
56 56 1 0.000000 403.581818 328.240967 249.351410 # A ADE
57 57 3 0.000000 408.683960 330.557739 248.990051 # G GUA
58 58 2 0.000000 413.594086 332.171753 245.776093 # C CYT
59 59 1 0.000000 416.626678 336.268127 242.781189 # A ADE
60 60 3 0.000000 418.156921 342.006653 242.297211 # G GUA
61 61 2 0.000000 418.322845 347.052856 244.274384 # C CYT
62 62 1 0.000000 416.938934 352.058960 247.516327 # A ADE
63 63 3 0.000000 418.823853 357.670349 248.366699 # G GUA
64 64 2 0.000000 420.082184 361.324585 253.073578 # C CYT
65 65 1 0.000000 422.858521 365.101013 256.963654 # A ADE
66 66 3 0.000000 421.422577 369.697998 259.935455 # G GUA
67 67 2 0.000000 416.968872 373.440186 260.830872 # C CYT
68 68 1 0.000000 411.363770 372.149170 261.317474 # A ADE
69 69 3 0.000000 405.596008 373.692139 260.892548 # G GUA
70 70 2 0.000000 401.027283 374.309570 256.677795 # C CYT
71 71 1 0.000000 395.586365 372.130676 257.309998 # A ADE
72 72 3 0.000000 389.925049 370.722839 259.091888 # G GUA
73 73 2 0.000000 384.474213 368.870361 261.160004 # C CYT
74 74 1 0.000000 381.011414 365.356689 264.519135 # A ADE
75 75 3 0.000000 377.970428 360.194885 265.649048 # G GUA
76 76 2 0.000000 376.076477 354.697449 264.932617 # C CYT
77 77 1 0.000000 377.139099 349.265930 264.631195 # A ADE
78 78 3 0.000000 379.487091 344.244324 262.834106 # G GUA
79 79 2 0.000000 378.277802 338.397644 260.687927 # C CYT
80 80 1 0.000000 378.218964 334.016052 256.814972 # A ADE
81 81 3 0.000000 380.549530 329.006104 254.746582 # G GUA
82 82 2 0.000000 385.074493 325.630554 253.980347 # C CYT
83 83 1 0.000000 389.426392 322.917358 256.479767 # A ADE
84 84 3 0.000000 392.608032 318.669312 258.121307 # G GUA
85 85 2 0.000000 398.293640 317.624268 256.713043 # C CYT
86 86 1 0.000000 402.913330 314.169250 257.436554 # A ADE
87 87 3 0.000000 408.908417 313.566528 258.710480 # G GUA
88 88 2 0.000000 413.153076 309.788635 260.844360 # C CYT
89 89 1 0.000000 418.165771 307.413879 260.195038 # A ADE
90 90 3 0.000000 420.164429 301.944824 261.403320 # G GUA
91 91 2 0.000000 425.157928 299.330383 262.547699 # C CYT
92 92 1 0.000000 429.698334 296.599854 265.743317 # A ADE
93 93 3 0.000000 435.300385 293.991394 266.231323 # G GUA
94 94 2 0.000000 372.309753 367.965332 247.095825 # C CYT
95 95 1 0.000000 377.725952 367.408752 249.381561 # A ADE
96 96 3 0.000000 383.697144 367.648682 248.344666 # G GUA
97 97 2 0.000000 386.807220 363.839417 245.557617 # C CYT
98 98 1 0.000000 387.560913 358.148987 246.834045 # A ADE
99 99 3 0.000000 388.278412 353.927368 250.904999 # G GUA
100 100 2 0.000000 387.361664 350.122375 255.124359 # C CYT
101 101 1 0.000000 388.678711 348.253662 260.481049 # A ADE
102 102 3 0.000000 391.373749 345.163574 264.095886 # G GUA
103 103 2 0.000000 390.390778 341.081970 268.151581 # C CYT
104 104 1 0.000000 389.923401 335.020081 268.266083 # A ADE
105 105 3 0.000000 391.074768 329.522339 269.107025 # G GUA
106 106 2 0.000000 390.281494 324.024170 267.584381 # C CYT
107 107 1 0.000000 387.898560 318.661072 266.293335 # A ADE
108 108 3 0.000000 385.878448 313.539246 268.661682 # G GUA
109 109 2 0.000000 387.562256 307.934692 269.075073 # C CYT
110 110 1 0.000000 388.631378 303.866455 265.153900 # A ADE
111 111 3 0.000000 388.596436 302.283569 259.469940 # G GUA
112 112 2 0.000000 385.608734 299.090698 255.450745 # C CYT
113 113 1 0.000000 382.866455 300.498047 250.578156 # A ADE
114 114 3 0.000000 377.044250 300.078247 248.861298 # G GUA
115 115 2 0.000000 373.429504 299.251465 244.225708 # C CYT
116 116 1 0.000000 370.517731 301.775574 239.898773 # A ADE
117 117 3 0.000000 367.750702 301.903442 234.639526 # G GUA
118 118 2 0.000000 364.550446 297.270386 232.906647 # C CYT
119 119 1 0.000000 362.726837 291.915466 233.274475 # A ADE
120 120 3 0.000000 359.630951 288.453644 229.386932 # G GUA
121 121 2 0.000000 361.419830 284.042145 226.607208 # C CYT
122 122 1 0.000000 360.854675 278.446136 224.338806 # A ADE
123 123 3 0.000000 358.051483 274.577698 221.745270 # G GUA
124 124 2 0.000000 354.395172 269.959076 223.016083 # C CYT
125 125 1 0.000000 349.877228 267.221069 224.872345 # A ADE
126 126 3 0.000000 346.180206 264.687225 221.175476 # G GUA
127 127 2 0.000000 341.950928 261.854431 218.716614 # C CYT
128 128 1 0.000000 337.706268 261.449249 214.631470 # A ADE
129 129 3 0.000000 332.389923 262.009827 212.526794 # G GUA
130 130 2 0.000000 328.469757 265.694855 213.356384 # C CYT
131 131 1 0.000000 323.268768 269.038788 213.722839 # A ADE
132 132 3 0.000000 322.755951 274.839508 214.066620 # G GUA
133 133 2 0.000000 322.778259 280.645386 216.101410 # C CYT
134 134 1 0.000000 322.913635 286.801147 216.323822 # A ADE
135 135 3 0.000000 323.187469 291.031494 212.523865 # G GUA
136 136 2 0.000000 320.588104 296.134277 210.658630 # C CYT
137 137 1 0.000000 320.357300 301.229858 207.434982 # A ADE
138 138 3 0.000000 321.110626 306.853943 207.717926 # G GUA
139 139 2 0.000000 323.856842 312.039124 206.099854 # C CYT
140 140 1 0.000000 325.310516 317.609680 207.331223 # A ADE
141 141 3 0.000000 327.340027 321.893982 210.767273 # G GUA
142 142 2 0.000000 332.118347 323.656128 213.702209 # C CYT
143 143 1 0.000000 333.298004 323.292114 219.532776 # A ADE
144 144 3 0.000000 332.594299 324.764221 225.451599 # G GUA
145 145 2 0.000000 329.446747 325.677856 229.959808 # C CYT
146 146 1 0.000000 324.195648 325.900024 232.826447 # A ADE
147 147 3 0.000000 322.970154 321.872986 236.982788 # G GUA
148 148 2 0.000000 325.416504 319.539734 241.840942 # C CYT
149 149 1 0.000000 329.089478 317.275024 245.902039 # A ADE
150 150 3 0.000000 333.510376 315.700378 249.585663 # G GUA
151 151 2 0.000000 339.275177 315.930542 250.119537 # C CYT
152 152 1 0.000000 344.730560 317.928467 251.433624 # A ADE
153 153 3 0.000000 349.557098 315.290161 252.837311 # G GUA
154 154 2 0.000000 355.135223 316.129761 254.506927 # C CYT
155 155 1 0.000000 358.655273 320.618896 255.987549 # A ADE
156 156 3 0.000000 363.328522 322.349243 259.535767 # G GUA
157 157 2 0.000000 365.962494 323.509338 264.648438 # C CYT
158 158 1 0.000000 371.507111 325.403015 266.262970 # A ADE
159 159 3 0.000000 374.210632 330.359375 267.256958 # G GUA
160 160 2 0.000000 379.102539 333.008850 270.369720 # C CYT
161 161 1 0.000000 380.226990 337.903198 273.247894 # A ADE
162 162 3 0.000000 379.971436 343.924866 272.774078 # G GUA
163 163 2 0.000000 381.708435 349.531494 273.285583 # C CYT
164 164 1 0.000000 385.475647 352.936890 270.222961 # A ADE
165 165 3 0.000000 387.158813 356.113464 265.446594 # G GUA
166 166 2 0.000000 391.811310 358.503479 263.473511 # C CYT
167 167 1 0.000000 394.596008 361.360718 259.265717 # A ADE
168 168 3 0.000000 397.751160 361.420471 254.532196 # G GUA
169 169 2 0.000000 400.733704 365.379517 250.923889 # C CYT
170 170 1 0.000000 406.343445 367.380371 250.788574 # A ADE
171 171 3 0.000000 410.008331 371.687866 249.125092 # G GUA
172 172 2 0.000000 414.158844 375.206177 249.673096 # C CYT
173 173 1 0.000000 419.830292 376.723755 250.297516 # A ADE
174 174 3 0.000000 425.225311 373.922485 250.413849 # G GUA
175 175 2 0.000000 430.800293 370.692627 250.530701 # C CYT
176 176 1 0.000000 432.978088 366.267517 247.777100 # A ADE
177 177 3 0.000000 433.055878 360.946472 245.577240 # G GUA
178 178 2 0.000000 432.203705 355.234985 247.021820 # C CYT
179 179 1 0.000000 428.413422 350.787720 247.912018 # A ADE
180 180 3 0.000000 429.219330 344.994812 248.615570 # G GUA
181 181 2 0.000000 430.419983 339.550964 246.922302 # C CYT
182 182 1 0.000000 431.508484 334.195862 249.941803 # A ADE
183 183 3 0.000000 435.322174 329.733398 249.675720 # G GUA
184 184 2 0.000000 438.005280 325.459290 246.266205 # C CYT
185 185 1 0.000000 439.231628 325.283020 240.579498 # A ADE
186 186 3 0.000000 442.391022 327.408997 235.978699 # G GUA
187 187 2 0.000000 282.712402 416.906372 356.975281 # C CYT
188 188 1 0.000000 277.572113 415.809937 359.461945 # A ADE
189 189 3 0.000000 276.303558 414.292847 364.810242 # G GUA
190 190 2 0.000000 277.398712 413.550110 370.990173 # C CYT
191 191 1 0.000000 281.034729 412.618958 375.787689 # A ADE
192 192 3 0.000000 285.551666 414.241455 379.606201 # G GUA
193 193 2 0.000000 290.415192 412.771973 382.152039 # C CYT
194 194 1 0.000000 295.372406 414.697266 385.213745 # A ADE
195 195 3 0.000000 301.197327 414.308289 386.721863 # G GUA
196 196 2 0.000000 306.921143 413.826416 385.609650 # C CYT
197 197 1 0.000000 310.532166 415.275085 381.253754 # A ADE
198 198 3 0.000000 315.837738 415.412109 378.107391 # G GUA
199 199 2 0.000000 321.526398 414.471191 377.289185 # C CYT
200 200 1 0.000000 325.415588 410.203735 377.397095 # A ADE
201 201 3 0.000000 327.743347 406.617249 373.559204 # G GUA
202 202 2 0.000000 330.962891 401.713196 373.085358 # C CYT
203 203 1 0.000000 336.230499 399.439758 371.832458 # A ADE
204 204 3 0.000000 340.306519 398.756897 367.093628 # G GUA
205 205 2 0.000000 345.475677 397.833923 364.608490 # C CYT
206 206 1 0.000000 348.144897 392.981873 362.611420 # A ADE
207 207 3 0.000000 347.452179 388.426636 358.915527 # G GUA
208 208 2 0.000000 346.101379 383.003113 357.782440 # C CYT
209 209 1 0.000000 341.950714 378.952820 356.416840 # A ADE
210 210 3 0.000000 340.895813 373.059814 356.993835 # G GUA
211 211 2 0.000000 341.280731 367.404053 355.165833 # C CYT
212 212 1 0.000000 341.028778 361.931213 352.245819 # A ADE
213 213 3 0.000000 340.745667 359.183960 347.530121 # G GUA
214 214 2 0.000000 340.519409 358.888550 341.778320 # C CYT
215 215 1 0.000000 341.871277 361.756958 336.727661 # A ADE
216 216 3 0.000000 343.726807 365.832581 333.168274 # G GUA
217 217 2 0.000000 346.148529 370.424561 330.213715 # C CYT
218 218 1 0.000000 348.885773 374.464966 325.929718 # A ADE
219 219 3 0.000000 352.533020 377.849792 322.813995 # G GUA
220 220 2 0.000000 356.643097 379.357361 318.497162 # C CYT
221 221 1 0.000000 358.868500 379.094849 312.731476 # A ADE
222 222 3 0.000000 358.438293 376.546082 307.463989 # G GUA
223 223 2 0.000000 357.555908 378.939636 302.094757 # C CYT
224 224 1 0.000000 354.298462 381.723206 298.097137 # A ADE
225 225 3 0.000000 351.570221 385.981934 295.385651 # G GUA
226 226 2 0.000000 347.620392 388.578003 291.470520 # C CYT
227 227 1 0.000000 344.470978 393.502686 290.250427 # A ADE
228 228 3 0.000000 343.101868 398.803650 291.661194 # G GUA
229 229 2 0.000000 343.670807 404.858093 292.561829 # C CYT
230 230 1 0.000000 341.636078 410.082153 294.218231 # A ADE
231 231 3 0.000000 340.873840 414.160034 298.921295 # G GUA
232 232 2 0.000000 343.030212 417.196106 303.983734 # C CYT
233 233 1 0.000000 343.134094 418.400574 309.982666 # A ADE
234 234 3 0.000000 343.737518 422.287842 314.276276 # G GUA
235 235 2 0.000000 342.121704 426.932861 318.183533 # C CYT
236 236 1 0.000000 337.583893 427.916016 321.652863 # A ADE
237 237 3 0.000000 333.394287 424.907898 325.026001 # G GUA
238 238 2 0.000000 331.209503 424.537842 330.821747 # C CYT
239 239 1 0.000000 332.121368 421.560669 336.126770 # A ADE
240 240 3 0.000000 330.493622 417.377869 339.782074 # G GUA
241 241 2 0.000000 327.269104 415.765869 344.604279 # C CYT
242 242 1 0.000000 321.591492 414.253845 346.101471 # A ADE
243 243 3 0.000000 317.521027 410.265747 347.654785 # G GUA
244 244 2 0.000000 313.172974 406.914612 346.544952 # C CYT
245 245 1 0.000000 310.171021 402.237732 343.754120 # A ADE
246 246 3 0.000000 306.918457 398.187500 346.207550 # G GUA
247 247 2 0.000000 302.792389 394.258728 347.020325 # C CYT
248 248 1 0.000000 297.103821 392.005188 347.316101 # A ADE
249 249 3 0.000000 291.505890 391.588135 347.043854 # G GUA
250 250 2 0.000000 286.057953 391.625549 344.425751 # C CYT
251 251 1 0.000000 282.578217 387.097046 343.406281 # A ADE
252 252 3 0.000000 276.672882 385.581299 344.433716 # G GUA
253 253 2 0.000000 272.010223 382.992676 346.785126 # C CYT
254 254 1 0.000000 270.300964 378.735840 350.754333 # A ADE
255 255 3 0.000000 268.634644 376.502380 356.101685 # G GUA
256 256 2 0.000000 265.215485 371.802490 358.353363 # C CYT
257 257 1 0.000000 264.723969 367.387085 361.834991 # A ADE
258 258 3 0.000000 264.272400 361.570862 363.237030 # G GUA
259 259 2 0.000000 264.811737 357.454834 367.317322 # C CYT
260 260 1 0.000000 266.513947 354.217773 371.560516 # A ADE
261 261 3 0.000000 269.969543 352.965637 376.136719 # G GUA
262 262 2 0.000000 271.711548 351.074463 381.368378 # C CYT
263 263 1 0.000000 271.516541 347.786072 386.851959 # A ADE
264 264 3 0.000000 267.596222 344.517639 389.775574 # G GUA
265 265 2 0.000000 263.268585 339.952881 390.148926 # C CYT
266 266 1 0.000000 259.372742 335.660706 388.927277 # A ADE
267 267 3 0.000000 256.497620 331.864258 385.960419 # G GUA
268 268 2 0.000000 253.876617 326.980530 387.724152 # C CYT
269 269 1 0.000000 252.789062 323.241577 392.082428 # A ADE
270 270 3 0.000000 249.603638 321.848572 396.916870 # G GUA
271 271 2 0.000000 251.119537 323.847961 402.420288 # C CYT
272 272 1 0.000000 256.066284 325.041870 404.882202 # A ADE
273 273 3 0.000000 258.526367 327.423889 409.646515 # G GUA
274 274 2 0.000000 259.764069 326.030396 415.510803 # C CYT
275 275 1 0.000000 260.809906 322.375854 420.097321 # A ADE
276 276 3 0.000000 261.852631 322.730286 426.041565 # G GUA
277 277 2 0.000000 264.535553 327.013367 428.490448 # C CYT
278 278 1 0.000000 268.986664 330.606506 428.973816 # A ADE
279 279 3 0.000000 273.237762 333.220520 431.755829 # G GUA
280 280 2 0.000000 214.024139 388.253052 315.171814 # C CYT
281 281 1 0.000000 213.231812 393.971313 316.703064 # A ADE
282 282 3 0.000000 212.393692 398.420166 320.713318 # G GUA
283 283 2 0.000000 212.090942 399.839844 326.423492 # C CYT
284 284 1 0.000000 210.536194 398.522217 332.106018 # A ADE
285 285 3 0.000000 213.365463 396.940308 337.325470 # G GUA
286 286 2 0.000000 218.555084 396.867798 340.255249 # C CYT
287 287 1 0.000000 224.171066 394.983948 340.117615 # A ADE
288 288 3 0.000000 229.469345 394.697876 343.257935 # G GUA
289 289 2 0.000000 235.450134 394.985474 344.385803 # C CYT
290 290 1 0.000000 240.805237 391.940796 343.998535 # A ADE
291 291 3 0.000000 246.399139 390.238586 343.939240 # G GUA
292 292 2 0.000000 251.155060 386.993774 341.456360 # C CYT
293 293 1 0.000000 254.317535 383.975220 337.320343 # A ADE
294 294 3 0.000000 254.442444 378.418030 334.930450 # G GUA
295 295 2 0.000000 256.862427 374.128113 332.594177 # C CYT
296 296 1 0.000000 256.525879 368.153809 331.040955 # A ADE
297 297 3 0.000000 255.356781 362.182800 330.480072 # G GUA
298 298 2 0.000000 257.292053 356.933472 329.787903 # C CYT
299 299 1 0.000000 262.427582 354.508240 329.596008 # A ADE
300 300 3 0.000000 266.305695 350.937439 331.812897 # G GUA
301 301 2 0.000000 270.621674 346.818848 330.897919 # C CYT
302 302 1 0.000000 274.070496 343.486206 327.324554 # A ADE
303 303 3 0.000000 275.776337 338.457764 324.854736 # G GUA
304 304 2 0.000000 279.508331 337.029419 320.570343 # C CYT
305 305 1 0.000000 283.746155 338.827148 316.600464 # A ADE
306 306 3 0.000000 287.263397 341.373596 312.377747 # G GUA
307 307 2 0.000000 288.697510 341.244812 306.772430 # C CYT
308 308 1 0.000000 291.220032 341.768555 301.244568 # A ADE
309 309 3 0.000000 289.330963 339.711548 296.117065 # G GUA
310 310 2 0.000000 288.426788 336.866272 290.800934 # C CYT
311 311 1 0.000000 284.224884 336.021790 286.967621 # A ADE
312 312 3 0.000000 281.570892 333.481506 282.446045 # G GUA
313 313 2 0.000000 279.315765 328.342285 280.368378 # C CYT
314 314 1 0.000000 279.053772 322.323975 279.753876 # A ADE
315 315 3 0.000000 278.791687 318.073059 284.198761 # G GUA
316 316 2 0.000000 278.398376 312.143127 285.623535 # C CYT
317 317 1 0.000000 277.662170 306.690186 287.814484 # A ADE
318 318 3 0.000000 280.036377 301.949951 289.388794 # G GUA
319 319 2 0.000000 281.110687 297.824219 293.358459 # C CYT
320 320 1 0.000000 283.734711 293.625793 297.284821 # A ADE
321 321 3 0.000000 282.613831 291.098999 302.092560 # G GUA
322 322 2 0.000000 282.925629 286.425323 305.736908 # C CYT
323 323 1 0.000000 284.003143 281.682556 309.199615 # A ADE
324 324 3 0.000000 286.379028 276.032898 310.085205 # G GUA
325 325 2 0.000000 289.846954 271.669830 309.960876 # C CYT
326 326 1 0.000000 295.468567 269.759796 308.827606 # A ADE
327 327 3 0.000000 299.566620 266.121460 306.611542 # G GUA
328 328 2 0.000000 304.585480 264.420898 303.694244 # C CYT
329 329 1 0.000000 306.820953 263.002930 298.543182 # A ADE
330 330 3 0.000000 308.128693 258.394623 294.549164 # G GUA
331 331 2 0.000000 309.973724 255.099350 289.700165 # C CYT
332 332 1 0.000000 309.731720 250.148117 286.587402 # A ADE
333 333 3 0.000000 310.004028 244.342361 286.363892 # G GUA
334 334 2 0.000000 309.894623 238.454361 288.001495 # C CYT
335 335 1 0.000000 311.712708 233.103561 288.258270 # A ADE
336 336 3 0.000000 313.764771 229.163895 292.237183 # G GUA
337 337 2 0.000000 314.227234 224.247757 295.647888 # C CYT
338 338 1 0.000000 312.835175 219.373581 299.012085 # A ADE
339 339 3 0.000000 310.219513 214.647263 301.442566 # G GUA
340 340 2 0.000000 309.912842 208.631149 300.594788 # C CYT
341 341 1 0.000000 306.714203 203.568558 298.863495 # A ADE
342 342 3 0.000000 309.826691 198.797928 296.838409 # G GUA
343 343 2 0.000000 311.461090 195.072128 292.704956 # C CYT
344 344 1 0.000000 314.965332 192.735947 289.055389 # A ADE
345 345 3 0.000000 320.379700 192.162277 286.825256 # G GUA
346 346 2 0.000000 325.642090 192.883804 284.589478 # C CYT
347 347 1 0.000000 331.769684 191.686691 284.093170 # A ADE
348 348 3 0.000000 337.001923 192.942276 281.731201 # G GUA
349 349 2 0.000000 342.845367 193.205307 280.687836 # C CYT
350 350 1 0.000000 347.510406 196.686813 280.345154 # A ADE
351 351 3 0.000000 352.782898 199.053848 281.396057 # G GUA
352 352 2 0.000000 358.267975 199.755173 282.433105 # C CYT
353 353 1 0.000000 363.356018 198.150620 280.587097 # A ADE
354 354 3 0.000000 365.229675 196.474014 275.420105 # G GUA
355 355 2 0.000000 365.505615 193.229355 270.705261 # C CYT
356 356 1 0.000000 362.420288 192.594437 265.876068 # A ADE
357 357 3 0.000000 359.067902 189.386398 262.294952 # G GUA
358 358 2 0.000000 353.395813 190.126328 259.798035 # C CYT
359 359 1 0.000000 347.870209 192.070602 257.745087 # A ADE
360 360 3 0.000000 342.524323 194.847916 257.368652 # G GUA
361 361 2 0.000000 338.395355 197.424820 254.142639 # C CYT
362 362 1 0.000000 333.790161 200.979843 254.387756 # A ADE
363 363 3 0.000000 331.339172 206.326401 253.402802 # G GUA
364 364 2 0.000000 330.665039 211.821609 251.371155 # C CYT
365 365 1 0.000000 330.241699 214.834030 246.221893 # A ADE
366 366 3 0.000000 331.946259 219.757462 243.977203 # G GUA
367 367 2 0.000000 333.630096 222.307602 238.890961 # C CYT
368 368 1 0.000000 338.099609 221.896591 234.638519 # A ADE
369 369 3 0.000000 344.111115 222.270981 234.582825 # G GUA
370 370 2 0.000000 348.833313 218.937729 233.849274 # C CYT
371 371 1 0.000000 352.304596 214.907089 236.987000 # A ADE
372 372 3 0.000000 355.766571 212.763657 241.996033 # G GUA
373 373 2 0.000000 292.837891 239.794052 280.347260 # C CYT
374 374 1 0.000000 288.292938 238.419174 276.560120 # A ADE
375 375 3 0.000000 282.583862 237.630081 274.879517 # G GUA
376 376 2 0.000000 278.943634 234.716965 278.115265 # C CYT
377 377 1 0.000000 275.893250 230.195511 279.691986 # A ADE
378 378 3 0.000000 275.855591 224.132736 279.170929 # G GUA
379 379 2 0.000000 276.794403 218.344254 280.970337 # C CYT
380 380 1 0.000000 276.400726 212.375992 279.742920 # A ADE
381 381 3 0.000000 274.601044 208.468399 275.512299 # G GUA
382 382 2 0.000000 272.667114 203.814194 272.593536 # C CYT
383 383 1 0.000000 272.772247 201.289352 267.148651 # A ADE
384 384 3 0.000000 275.231781 199.900162 262.063477 # G GUA
385 385 2 0.000000 279.503357 199.389633 258.151398 # C CYT
386 386 1 0.000000 282.301636 200.732468 253.118530 # A ADE
387 387 3 0.000000 282.792847 204.768570 248.373627 # G GUA
388 388 2 0.000000 279.999512 208.794876 244.913879 # C CYT
389 389 1 0.000000 276.648438 213.238663 245.153442 # A ADE
390 390 3 0.000000 271.131012 214.842239 243.735168 # G GUA
391 391 2 0.000000 269.952179 218.514511 239.213989 # C CYT
392 392 1 0.000000 265.727234 222.666214 238.785034 # A ADE
393 393 3 0.000000 263.948059 228.434586 238.872375 # G GUA
394 394 2 0.000000 261.829346 232.903702 236.094788 # C CYT
395 395 1 0.000000 260.991119 238.219925 233.801056 # A ADE
396 396 3 0.000000 261.001984 244.145554 235.718872 # G GUA
397 397 2 0.000000 257.085602 248.479721 235.298798 # C CYT
398 398 1 0.000000 256.252380 254.383743 236.714203 # A ADE
399 399 3 0.000000 257.436584 257.857483 241.709686 # G GUA
400 400 2 0.000000 257.661407 260.037048 247.207184 # C CYT
401 401 1 0.000000 256.779541 263.951477 251.633667 # A ADE
402 402 3 0.000000 253.636200 266.313385 256.212738 # G GUA
403 403 2 0.000000 251.775574 270.243500 259.637573 # C CYT
404 404 1 0.000000 251.858856 274.030151 263.883850 # A ADE
405 405 3 0.000000 253.818085 279.097717 265.677734 # G GUA
406 406 2 0.000000 258.437042 282.503143 267.163574 # C CYT
407 407 1 0.000000 263.843811 283.420441 268.234467 # A ADE
408 408 3 0.000000 268.545563 286.604462 269.718079 # G GUA
409 409 2 0.000000 274.648804 286.024292 269.689850 # C CYT
410 410 1 0.000000 280.351959 287.230103 267.057861 # A ADE
411 411 3 0.000000 284.155975 289.008392 262.708282 # G GUA
412 412 2 0.000000 287.174652 288.217285 258.052185 # C CYT
413 413 1 0.000000 288.515289 290.479675 252.742065 # A ADE
414 414 3 0.000000 291.467773 289.331848 247.650055 # G GUA
415 415 2 0.000000 296.243500 288.239960 243.864441 # C CYT
416 416 1 0.000000 302.332092 287.995178 245.043335 # A ADE
417 417 3 0.000000 308.255188 288.504852 243.887482 # G GUA
418 418 2 0.000000 312.923187 291.972107 242.597534 # C CYT
419 419 1 0.000000 318.802673 292.014038 243.025818 # A ADE
420 420 3 0.000000 323.579071 288.666138 245.079498 # G GUA
421 421 2 0.000000 327.403625 284.160645 244.051666 # C CYT
422 422 1 0.000000 328.621338 279.499207 240.509064 # A ADE
423 423 3 0.000000 332.676178 278.067413 236.574127 # G GUA
424 424 2 0.000000 333.170441 274.101929 232.260620 # C CYT
425 425 1 0.000000 331.245300 269.354431 229.273438 # A ADE
426 426 3 0.000000 326.298981 266.603210 226.809662 # G GUA
427 427 2 0.000000 324.342712 263.387909 222.848175 # C CYT
428 428 1 0.000000 325.459625 258.924103 219.134705 # A ADE
429 429 3 0.000000 325.950104 253.272507 220.157928 # G GUA
430 430 2 0.000000 325.643646 248.809097 223.555267 # C CYT
431 431 1 0.000000 322.257874 245.354752 226.244446 # A ADE
432 432 3 0.000000 320.465698 241.750015 230.088501 # G GUA
433 433 2 0.000000 318.853424 239.930649 235.621643 # C CYT
434 434 1 0.000000 315.701874 238.943619 240.480682 # A ADE
435 435 3 0.000000 310.349854 236.298050 240.735413 # G GUA
436 436 2 0.000000 306.859863 231.805099 239.871063 # C CYT
437 437 1 0.000000 304.354126 227.117691 237.394226 # A ADE
438 438 3 0.000000 302.980011 221.708847 236.375336 # G GUA
439 439 2 0.000000 297.982147 218.425034 235.379547 # C CYT
440 440 1 0.000000 294.987640 213.454330 233.331970 # A ADE
441 441 3 0.000000 296.025146 207.714859 233.318237 # G GUA
442 442 2 0.000000 299.836365 203.675461 232.057343 # C CYT
443 443 1 0.000000 305.046234 201.789627 231.519623 # A ADE
444 444 3 0.000000 307.235931 196.859146 232.951416 # G GUA
445 445 2 0.000000 310.729675 194.297104 237.211060 # C CYT
446 446 1 0.000000 312.612396 197.200058 242.187897 # A ADE
447 447 3 0.000000 309.172699 200.120895 246.341156 # G GUA
448 448 2 0.000000 310.207550 203.633163 251.161865 # C CYT
449 449 1 0.000000 308.161316 208.127884 254.156219 # A ADE
450 450 3 0.000000 303.645844 211.347031 255.795593 # G GUA
451 451 2 0.000000 298.011810 212.606583 255.856995 # C CYT
452 452 1 0.000000 292.956757 210.313309 257.534210 # A ADE
453 453 3 0.000000 287.406311 211.099899 257.957489 # G GUA
454 454 2 0.000000 281.587158 210.689529 256.654694 # C CYT
455 455 1 0.000000 275.761047 211.174454 258.382568 # A ADE
456 456 3 0.000000 270.538147 209.267197 260.288269 # G GUA
457 457 2 0.000000 266.770477 211.170120 264.420624 # C CYT
458 458 1 0.000000 265.479370 212.750900 270.166962 # A ADE
459 459 3 0.000000 264.610291 214.508560 275.770599 # G GUA
460 460 2 0.000000 265.426758 215.503342 281.534546 # C CYT
461 461 1 0.000000 266.802582 219.653671 285.395538 # A ADE
462 462 3 0.000000 266.754547 221.463425 291.117432 # G GUA
463 463 2 0.000000 262.568512 224.422714 293.943665 # C CYT
464 464 1 0.000000 260.199371 225.707657 299.239563 # A ADE
465 465 3 0.000000 259.166565 225.404617 305.072174 # G GUA
466 466 2 0.000000 286.732269 312.592224 426.431824 # C CYT
467 467 1 0.000000 286.205536 318.463318 426.139954 # A ADE
468 468 3 0.000000 283.225891 323.908936 426.031616 # G GUA
469 469 2 0.000000 279.079559 324.561951 421.820374 # C CYT
470 470 1 0.000000 276.190430 322.934570 416.769867 # A ADE
471 471 3 0.000000 272.042542 319.427246 414.588074 # G GUA
472 472 2 0.000000 266.666412 317.144836 412.908966 # C CYT
473 473 1 0.000000 264.210754 315.227600 407.662262 # A ADE
474 474 3 0.000000 263.100555 311.233826 403.421539 # G GUA
475 475 2 0.000000 263.688538 306.092346 401.081451 # C CYT
476 476 1 0.000000 264.238525 302.023621 396.548553 # A ADE
477 477 3 0.000000 266.343842 296.330078 395.232178 # G GUA
478 478 2 0.000000 264.937622 292.230042 391.524719 # C CYT
479 479 1 0.000000 261.482086 289.157288 388.178894 # A ADE
480 480 3 0.000000 261.943817 285.933472 383.328644 # G GUA
481 481 2 0.000000 262.045013 281.032562 380.427521 # C CYT
482 482 1 0.000000 264.271301 276.156097 378.341736 # A ADE
483 483 3 0.000000 265.593658 271.331879 374.928070 # G GUA
484 484 2 0.000000 269.283875 268.290314 371.463593 # C CYT
485 485 1 0.000000 274.608643 265.767059 370.846161 # A ADE
486 486 3 0.000000 278.830963 263.252899 373.168518 # G GUA
487 487 2 0.000000 278.469879 260.406708 378.119141 # C CYT
488 488 1 0.000000 276.022614 256.706238 382.321014 # A ADE
489 489 3 0.000000 270.526276 255.928726 384.315826 # G GUA
490 490 2 0.000000 265.351532 253.145035 383.618866 # C CYT
491 491 1 0.000000 262.536377 249.789627 379.980316 # A ADE
492 492 3 0.000000 259.271393 250.848648 374.925201 # G GUA
493 493 2 0.000000 258.208984 247.968155 369.786255 # C CYT
494 494 1 0.000000 257.344971 248.127426 363.979584 # A ADE
495 495 3 0.000000 259.230438 249.406998 358.597473 # G GUA